/*--------------------------------*- C++ -*----------------------------------*\
| =========                 |                                                 |
| \\      /  F ield         | OpenFOAM: The Open Source CFD Toolbox           |
|  \\    /   O peration     | Version:  1.6                                   |
|   \\  /    A nd           | Web:      www.OpenFOAM.org                      |
|    \\/     M anipulation  |                                                 |
\*---------------------------------------------------------------------------*/
FoamFile
{
    version     2.0;
    format      ascii;
    class       surfaceScalarField;
    location    "0";
    object      phi;
}
// * * * * * * * * * * * * * * * * * * * * * * * * * * * * * * * * * * * * * //

dimensions      [0 3 -1 0 0 0 0];

internalField   uniform 0;

boundaryField
{
    inlet_F
    {
        type            calculated;
        value           nonuniform List<scalar> 
606
(
-1.06973e-06
-1.18236e-06
-1.13521e-06
-1.2487e-06
-1.20955e-06
-1.21525e-06
-1.26718e-06
-1.29307e-06
-1.34499e-06
-1.18678e-06
-1.50777e-06
-1.10684e-06
-1.11514e-06
-1.09645e-06
-1.1308e-06
-1.13283e-06
-1.1017e-06
-1.26515e-06
-1.20171e-06
-1.28436e-06
-1.30523e-06
-1.13253e-06
-1.47415e-06
-1.19153e-06
-1.14766e-06
-1.18962e-06
-1.24133e-06
-1.20039e-06
-1.20667e-06
-1.2337e-06
-1.24424e-06
-1.12346e-06
-1.42747e-06
-1.18369e-06
-1.26006e-06
-1.20013e-06
-1.30609e-06
-1.28029e-06
-1.27268e-06
-1.29029e-06
-1.28411e-06
-1.19754e-06
-1.30239e-06
-1.12164e-06
-1.41086e-06
-1.04185e-06
-1.11126e-06
-1.18371e-06
-1.15847e-06
-1.17423e-06
-1.19752e-06
-1.29899e-06
-1.25708e-06
-1.29175e-06
-1.33704e-06
-1.13231e-06
-1.45478e-06
-1.05383e-06
-1.13384e-06
-1.24399e-06
-1.20921e-06
-1.22136e-06
-1.26305e-06
-1.25459e-06
-1.2677e-06
-1.00983e-06
-1.06745e-06
-1.08474e-06
-1.15655e-06
-1.15689e-06
-1.28035e-06
-1.2478e-06
-1.38808e-06
-1.32717e-06
-1.35956e-06
-1.2835e-06
-1.32154e-06
-9.89777e-07
-1.09672e-06
-1.18218e-06
-1.20419e-06
-1.18641e-06
-1.19489e-06
-1.25247e-06
-1.32881e-06
-1.25879e-06
-1.28345e-06
-1.20071e-06
-1.29892e-06
-1.19721e-06
-1.48727e-06
-1.189e-06
-1.17523e-06
-1.2707e-06
-1.30985e-06
-1.28263e-06
-1.29228e-06
-1.1579e-06
-1.29048e-06
-1.05981e-06
-1.37479e-06
-9.90927e-07
-1.44679e-06
-1.33415e-06
-1.31162e-06
-1.48759e-06
-1.3526e-06
-1.54318e-06
-1.5291e-06
-1.48829e-06
-1.26312e-06
-1.13707e-06
-1.17795e-06
-1.16007e-06
-1.25565e-06
-1.2279e-06
-1.48518e-06
-1.29694e-06
-8.977e-07
-1.04148e-06
-8.73703e-07
-1.13617e-06
-1.06535e-06
-1.23341e-06
-1.16474e-06
-1.42693e-06
-1.22514e-06
-1.08615e-06
-1.35917e-06
-9.31666e-07
-1.29391e-06
-1.05051e-06
-1.03704e-06
-1.15545e-06
-1.03411e-06
-1.3864e-06
-1.13375e-06
-1.18689e-06
-1.09958e-06
-1.13949e-06
-1.14132e-06
-1.16321e-06
-1.14386e-06
-1.21265e-06
-1.16277e-06
-1.3502e-06
-1.17096e-06
-9.26313e-07
-1.16005e-06
-1.13828e-06
-8.03693e-07
-1.04695e-06
-1.06437e-06
-1.45892e-06
-1.16504e-06
-1.06365e-06
-1.00723e-06
-1.04852e-06
-1.03299e-06
-8.85724e-07
-1.05572e-06
-9.09505e-07
-1.1203e-06
-9.97219e-07
-1.06583e-06
-1.3652e-06
-1.37328e-06
-1.41856e-06
-1.43255e-06
-1.17532e-06
-1.03711e-06
-1.12669e-06
-9.33946e-07
-1.15724e-06
-1.09351e-06
-1.1653e-06
-1.1209e-06
-1.06718e-06
-1.09727e-06
-1.13248e-06
-1.16411e-06
-1.09694e-06
-1.26416e-06
-1.14308e-06
-1.08338e-06
-1.31647e-06
-7.70844e-07
-1.09779e-06
-9.04224e-07
-1.09702e-06
-9.60045e-07
-1.03474e-06
-1.04778e-06
-1.06745e-06
-9.71155e-07
-7.80361e-07
-1.13793e-06
-1.01981e-06
-9.26609e-07
-1.08295e-06
-1.08933e-06
-1.19565e-06
-1.07775e-06
-1.34302e-06
-1.32426e-06
-1.19469e-06
-1.15582e-06
-9.11381e-07
-9.16465e-07
-9.88579e-07
-1.11815e-06
-1.26429e-06
-1.24117e-06
-1.24635e-06
-7.71718e-07
-9.52094e-07
-7.85243e-07
-1.38884e-06
-9.92915e-07
-1.20993e-06
-1.26412e-06
-1.03317e-06
-1.01044e-06
-1.10111e-06
-1.37793e-06
-1.28747e-06
-1.30505e-06
-1.05272e-06
-1.26625e-06
-1.13221e-06
-1.22819e-06
-1.1016e-06
-1.09582e-06
-1.01183e-06
-1.31116e-06
-1.50957e-06
-1.30872e-06
-1.10202e-06
-1.14461e-06
-1.25621e-06
-1.30341e-06
-9.63242e-07
-7.66679e-07
-9.47167e-07
-1.15247e-06
-1.12349e-06
-1.22738e-06
-1.23494e-06
-9.36816e-07
-1.13263e-06
-1.08252e-06
-1.04312e-06
-1.03108e-06
-1.20545e-06
-1.02553e-06
-9.49278e-07
-1.01795e-06
-1.12104e-06
-1.03995e-06
-1.00811e-06
-9.68814e-07
-1.0736e-06
-1.10887e-06
-1.32606e-06
-1.029e-06
-1.34498e-06
-9.00597e-07
-1.17443e-06
-1.16388e-06
-7.71635e-07
-9.92127e-07
-7.6014e-07
-1.05162e-06
-1.15471e-06
-1.2636e-06
-1.22579e-06
-1.00345e-06
-1.06796e-06
-1.4206e-06
-1.18356e-06
-1.25971e-06
-1.07663e-06
-1.05143e-06
-1.18039e-06
-1.10779e-06
-1.29148e-06
-1.23287e-06
-1.4172e-06
-1.06942e-06
-1.25739e-06
-1.14496e-06
-9.771e-07
-1.42896e-06
-1.19518e-06
-1.17938e-06
-1.21208e-06
-1.27604e-06
-1.16116e-06
-1.43086e-06
-1.35425e-06
-1.25976e-06
-1.29863e-06
-1.49813e-06
-1.38441e-06
-1.10027e-06
-1.27448e-06
-1.22032e-06
-1.27601e-06
-1.22639e-06
-1.30384e-06
-1.22341e-06
-1.47373e-06
-1.43243e-06
-1.17545e-06
-1.25183e-06
-1.36077e-06
-1.12676e-06
-1.14595e-06
-1.20395e-06
-1.11969e-06
-1.41479e-06
-1.25839e-06
-1.19119e-06
-1.15683e-06
-1.16255e-06
-1.00927e-06
-1.19911e-06
-1.14578e-06
-1.2028e-06
-1.1877e-06
-1.26503e-06
-9.51531e-07
-1.14251e-06
-1.09102e-06
-9.24783e-07
-1.01372e-06
-1.07227e-06
-1.08458e-06
-8.88472e-07
-1.55872e-06
-1.64544e-06
-1.13979e-06
-1.24945e-06
-1.18952e-06
-8.06666e-07
-1.01721e-06
-1.11703e-06
-1.08933e-06
-1.19061e-06
-1.1274e-06
-1.14363e-06
-9.83175e-07
-9.83616e-07
-7.80848e-07
-1.11018e-06
-9.66383e-07
-8.70193e-07
-1.28983e-06
-1.01002e-06
-1.00338e-06
-9.8521e-07
-1.10285e-06
-1.01124e-06
-1.17496e-06
-1.12951e-06
-1.05687e-06
-9.06069e-07
-1.18362e-06
-1.13057e-06
-1.1487e-06
-1.19693e-06
-1.60961e-06
-8.65674e-07
-1.05997e-06
-9.24861e-07
-1.25856e-06
-1.24593e-06
-1.47766e-06
-1.22329e-06
-1.28472e-06
-1.26174e-06
-1.15368e-06
-1.08143e-06
-1.16627e-06
-1.13892e-06
-1.48822e-06
-1.19426e-06
-9.1051e-07
-1.22951e-06
-9.30601e-07
-1.22622e-06
-9.42452e-07
-1.08068e-06
-8.86864e-07
-1.10659e-06
-1.26799e-06
-1.25803e-06
-1.26572e-06
-1.39417e-06
-1.40562e-06
-1.36066e-06
-1.12847e-06
-1.14344e-06
-1.69226e-06
-1.27524e-06
-1.26807e-06
-1.23214e-06
-1.29345e-06
-1.31264e-06
-1.46071e-06
-1.22649e-06
-1.20387e-06
-1.25451e-06
-1.67328e-06
-1.90034e-06
-1.57349e-06
-1.16784e-06
-1.54069e-06
-1.44441e-06
-1.55071e-06
-1.18894e-06
-1.54123e-06
-1.62889e-06
-1.25423e-06
-1.247e-06
-1.0863e-06
-1.08149e-06
-1.33149e-06
-1.16085e-06
-9.749e-07
-1.00904e-06
-1.00924e-06
-1.3927e-06
-1.04547e-06
-1.39817e-06
-1.38885e-06
-1.38373e-06
-9.37074e-07
-1.02421e-06
-9.50655e-07
-1.07314e-06
-1.32234e-06
-1.23655e-06
-1.11435e-06
-1.0762e-06
-1.07267e-06
-1.14818e-06
-1.26228e-06
-1.52954e-06
-1.48718e-06
-1.33736e-06
-1.2933e-06
-1.3089e-06
-1.23235e-06
-1.18159e-06
-8.67275e-07
-1.16536e-06
-1.46883e-06
-1.15915e-06
-1.38351e-06
-1.27145e-06
-1.43754e-06
-1.45548e-06
-1.05055e-06
-1.03514e-06
-1.19713e-06
-1.45885e-06
-1.05127e-06
-1.18536e-06
-8.80806e-07
-1.10428e-06
-8.82056e-07
-8.42259e-07
-1.16956e-06
-1.03016e-06
-1.15023e-06
-1.28535e-06
-9.813e-07
-1.03268e-06
-1.56097e-06
-9.38221e-07
-1.20946e-06
-1.46066e-06
-8.7628e-07
-9.76446e-07
-9.96251e-07
-9.97232e-07
-1.05222e-06
-1.13638e-06
-1.29162e-06
-1.18148e-06
-9.93016e-07
-1.27186e-06
-9.31564e-07
-9.42112e-07
-1.02249e-06
-1.34934e-06
-1.18363e-06
-1.14951e-06
-1.70379e-06
-1.18423e-06
-1.27784e-06
-1.26477e-06
-1.10768e-06
-9.49976e-07
-1.50507e-06
-9.37396e-07
-9.43622e-07
-8.1717e-07
-1.28616e-06
-1.25908e-06
-1.2007e-06
-1.09692e-06
-1.0157e-06
-1.11326e-06
-1.08908e-06
-1.14103e-06
-1.0476e-06
-1.1382e-06
-1.58328e-06
-1.6343e-06
-1.37735e-06
-1.50053e-06
-1.71727e-06
-1.3399e-06
-1.2997e-06
-1.1442e-06
-1.21157e-06
-1.4987e-06
-8.49401e-07
-1.33459e-06
-1.18695e-06
-1.59694e-06
-1.42356e-06
-8.83296e-07
-1.32242e-06
-1.31477e-06
-1.32331e-06
-9.76081e-07
-9.44449e-07
-1.36783e-06
-1.1041e-06
-1.43806e-06
-1.25074e-06
-1.6288e-06
-1.15163e-06
-1.3635e-06
-1.27778e-06
-1.14747e-06
-1.43111e-06
-1.26226e-06
-1.02135e-06
-1.07395e-06
-1.10013e-06
-1.29311e-06
-1.37278e-06
-1.48261e-06
-1.34783e-06
-1.1304e-06
-1.01903e-06
-1.26808e-06
-1.32599e-06
-9.19518e-07
-1.5139e-06
-1.34106e-06
-1.25885e-06
-1.13384e-06
-1.31672e-06
-1.35064e-06
-1.27413e-06
-1.29066e-06
-1.30422e-06
-1.21812e-06
-1.28717e-06
-1.13001e-06
-1.16468e-06
-1.17299e-06
-1.18805e-06
-1.03542e-06
-1.41936e-06
-1.18217e-06
-1.38157e-06
-1.24692e-06
-1.26233e-06
-1.05678e-06
-1.58324e-06
-1.89786e-06
-1.32047e-06
-1.36004e-06
-1.33288e-06
-8.88953e-07
-1.26007e-06
-1.35832e-06
-2.15022e-06
-1.01419e-06
-1.346e-06
-9.90536e-07
-1.25301e-06
-1.56688e-06
-1.31564e-06
-1.08777e-06
-1.27202e-06
-1.3035e-06
-1.2302e-06
-1.27784e-06
-1.06865e-06
)
;
    }
    outlet_F1
    {
        type            calculated;
        value           uniform 0;
    }
    outlet_F2
    {
        type            calculated;
        value           uniform 0;
    }
    pipe
    {
        type            calculated;
        value           uniform 0;
    }
}


// ************************************************************************* //
